101
MC Step 10, Fx=5.00 pN, Energy=-372.910 kBT
C    0.000    0.000    0.000
C    0.848   -0.054    0.527
C    1.690   -0.533    0.278
C    2.484   -0.599   -0.326
C    3.216   -0.557    0.354
C    3.666    0.231    0.774
C    4.605    0.446    1.042
C    5.046   -0.139    0.361
C    5.911   -0.327    0.827
C    6.802   -0.677    0.541
C    7.524   -1.062   -0.035
C    8.427   -0.703   -0.270
C    9.271   -1.238   -0.293
C   10.216   -1.056   -0.562
C   11.121   -1.089   -0.138
C   11.959   -0.575   -0.320
C   12.791   -0.021   -0.331
C   13.517   -0.113    0.351
C   14.320    0.392    0.667
C   15.242    0.494    1.040
C   16.231    0.529    1.187
C   17.017    0.415    1.796
C   17.912    0.837    1.936
C   18.763    0.496    2.337
C   19.729    0.240    2.364
C   20.320   -0.507    2.671
C   21.208   -0.277    3.069
C   22.101   -0.443    2.649
C   23.052   -0.619    2.394
C   23.201   -0.223    3.300
C   24.023   -0.160    2.734
C   25.019   -0.217    2.807
C   25.450    0.267    3.568
C   26.378   -0.105    3.539
C   26.796   -0.925    3.931
C   27.665   -0.810    4.412
C   28.147    0.063    4.340
C   28.937    0.383    3.817
C   29.728    0.465    3.210
C   30.256   -0.158    3.787
C   31.178   -0.233    3.409
C   32.045   -0.453    2.961
C   32.993   -0.772    2.978
C   33.757   -0.239    3.341
C   34.680   -0.173    3.721
C   35.159   -0.860    4.266
C   36.026   -0.364    4.321
C   36.556   -0.127    3.507
C   36.600   -0.198    2.511
C   37.438   -0.357    3.032
C   38.426   -0.309    3.180
C   39.058   -0.691    3.854
C   39.990   -1.050    3.898
C   40.818   -0.782    4.391
C   41.773   -0.692    4.673
C   42.572   -0.978    4.145
C   43.377   -0.925    4.736
C   43.618   -0.029    5.109
C   44.602   -0.005    4.930
C   45.416   -0.573    4.806
C   45.628   -1.080    5.642
C   46.515   -1.196    5.196
C   47.451   -1.323    5.523
C   48.332   -0.859    5.424
C   48.985   -1.162    4.730
C   49.315   -1.884    5.338
C   50.050   -2.328    5.851
C   51.029   -2.528    5.890
C   51.909   -2.055    5.939
C   52.663   -2.657    6.201
C   53.130   -2.175    6.942
C   53.706   -2.970    7.128
C   54.524   -3.500    7.354
C   55.195   -3.934    6.753
C   56.188   -4.023    6.679
C   57.171   -4.172    6.784
C   57.697   -3.597    7.410
C   58.232   -2.932    7.932
C   59.230   -2.888    7.896
C   59.307   -3.684    8.497
C   60.123   -3.930    7.973
C   61.092   -3.699    8.058
C   61.979   -3.324    8.327
C   62.555   -3.921    8.885
C   63.327   -4.507    9.132
C   64.264   -4.570    8.790
C   65.069   -5.163    8.793
C   65.658   -5.908    9.107
C   66.532   -5.430    9.196
C   67.488   -5.264    8.954
C   68.242   -4.668    9.231
C   68.573   -5.516    8.817
C   69.125   -6.350    8.809
C   69.948   -6.713    9.246
C   70.946   -6.717    9.172
C   71.375   -6.267    8.389
C   72.041   -6.006    7.691
C   72.902   -6.501    7.572
C   73.287   -7.140    6.906
C   73.795   -6.390    7.330
C   74.582   -6.511    7.935
101
MC Step 20, Fx=5.00 pN, Energy=-374.549 kBT
C    0.000    0.000    0.000
C    0.848   -0.054    0.527
C    1.690   -0.533    0.278
C    2.484   -0.599   -0.326
C    3.216   -0.557    0.354
C    3.666    0.231    0.774
C    4.605    0.446    1.042
C    5.046   -0.139    0.361
C    5.911   -0.327    0.827
C    6.802   -0.677    0.541
C    7.524   -1.062   -0.035
C    8.427   -0.703   -0.270
C    9.271   -1.238   -0.293
C   10.236   -1.161   -0.544
C   11.140   -1.195   -0.119
C   11.979   -0.681   -0.301
C   12.811   -0.126   -0.313
C   13.536   -0.219    0.369
C   14.340    0.286    0.685
C   15.262    0.388    1.058
C   16.250    0.424    1.206
C   17.036    0.310    1.814
C   17.932    0.731    1.954
C   18.782    0.390    2.355
C   19.749    0.134    2.382
C   20.339   -0.612    2.689
C   21.228   -0.382    3.087
C   22.120   -0.548    2.668
C   23.071   -0.724    2.412
C   23.221   -0.329    3.318
C   24.043   -0.266    2.752
C   25.038   -0.323    2.825
C   25.469    0.161    3.587
C   26.397   -0.211    3.557
C   26.815   -1.030    3.949
C   27.684   -0.915    4.430
C   28.166   -0.042    4.358
C   28.957    0.277    3.835
C   29.747    0.360    3.228
C   30.275   -0.263    3.805
C   31.198   -0.339    3.427
C   32.065   -0.558    2.979
C   33.012   -0.878    2.996
C   33.776   -0.345    3.359
C   34.699   -0.278    3.739
C   35.179   -0.966    4.284
C   36.045   -0.469    4.339
C   36.575   -0.232    3.525
C   36.619   -0.303    2.529
C   37.458   -0.462    3.050
C   38.445   -0.414    3.198
C   39.077   -0.797    3.873
C   40.009   -1.155    3.916
C   40.837   -0.887    4.409
C   41.792   -0.797    4.691
C   42.591   -1.084    4.163
C   43.396   -1.030    4.754
C   43.638   -0.135    5.127
C   44.621   -0.111    4.948
C   45.435   -0.679    4.824
C   45.647   -1.185    5.660
C   46.535   -1.301    5.214
C   47.471   -1.429    5.541
C   48.351   -0.965    5.442
C   49.005   -1.268    4.748
C   49.335   -1.990    5.356
C   50.070   -2.434    5.869
C   51.049   -2.633    5.908
C   51.929   -2.161    5.957
C   52.683   -2.763    6.219
C   53.149   -2.280    6.960
C   53.726   -3.076    7.146
C   54.543   -3.606    7.372
C   55.214   -4.040    6.771
C   56.207   -4.128    6.697
C   57.191   -4.277    6.802
C   57.717   -3.702    7.428
C   58.251   -3.038    7.950
C   59.250   -2.994    7.914
C   59.326   -3.790    8.515
C   60.142   -4.035    7.991
C   61.111   -3.805    8.076
C   61.998   -3.429    8.346
C   62.574   -4.027    8.903
C   63.346   -4.612    9.151
C   64.284   -4.676    8.808
C   65.089   -5.269    8.811
C   65.677   -6.014    9.125
C   66.551   -5.536    9.214
C   67.507   -5.369    8.973
C   68.262   -4.774    9.249
C   68.901   -5.531    9.381
C   69.453   -6.366    9.373
C   70.276   -6.728    9.810
C   71.273   -6.733    9.736
C   71.702   -6.282    8.953
C   72.369   -6.022    8.255
C   73.229   -6.517    8.136
C   73.615   -7.155    7.470
C   74.123   -6.405    7.894
C   74.910   -6.526    8.499
101
MC Step 30, Fx=5.00 pN, Energy=-377.165 kBT
C    0.000    0.000    0.000
C    0.848   -0.054    0.527
C    1.790    0.283    0.498
C    2.584    0.216   -0.106
C    3.316    0.258    0.574
C    3.766    1.046    0.994
C    4.705    1.261    1.263
C    5.145    0.676    0.582
C    6.010    0.488    1.047
C    6.902    0.138    0.761
C    7.623   -0.247    0.186
C    8.526    0.112   -0.050
C    9.370   -0.423   -0.073
C   10.335   -0.346   -0.324
C   11.240   -0.380    0.101
C   12.078    0.134   -0.081
C   12.910    0.689   -0.093
C   13.636    0.596    0.589
C   14.439    1.101    0.905
C   15.361    1.203    1.278
C   16.350    1.239    1.426
C   17.077    0.726    0.970
C   17.973    1.147    1.111
C   18.823    0.806    1.511
C   19.789    0.550    1.538
C   20.380   -0.196    1.845
C   21.269    0.033    2.243
C   22.161   -0.133    1.824
C   23.112   -0.309    1.568
C   23.124   -0.253    0.570
C   23.946   -0.190    0.004
C   24.942   -0.246    0.077
C   25.373    0.238    0.838
C   26.300   -0.135    0.809
C   26.718   -0.954    1.201
C   27.587   -0.839    1.682
C   28.070    0.034    1.610
C   28.860    0.353    1.087
C   29.650    0.436    0.479
C   30.178   -0.187    1.057
C   31.101   -0.263    0.679
C   31.968   -0.482    0.231
C   32.915   -0.802    0.248
C   33.680   -0.269    0.611
C   34.602   -0.202    0.991
C   35.082   -0.889    1.536
C   35.948   -0.393    1.591
C   36.479   -0.156    0.777
C   36.522   -0.227   -0.219
C   37.361   -0.386    0.301
C   38.349   -0.338    0.450
C   38.980   -0.720    1.124
C   39.913   -1.079    1.168
C   40.740   -0.811    1.661
C   41.695   -0.721    1.943
C   42.495   -1.007    1.415
C   43.299   -0.954    2.006
C   44.189   -1.098    1.574
C   45.173   -1.075    1.395
C   45.987   -1.642    1.270
C   46.199   -2.149    2.106
C   47.086   -2.265    1.660
C   48.022   -2.393    1.988
C   48.903   -1.929    1.888
C   49.556   -2.231    1.195
C   49.887   -2.953    1.803
C   50.621   -3.397    2.315
C   51.601   -3.597    2.355
C   52.480   -3.124    2.404
C   53.234   -3.727    2.666
C   53.701   -3.244    3.406
C   54.277   -4.040    3.593
C   55.095   -4.569    3.819
C   55.766   -5.004    3.218
C   56.759   -5.092    3.143
C   57.742   -5.241    3.249
C   58.269   -4.666    3.875
C   58.803   -4.001    4.397
C   59.801   -3.958    4.361
C   59.878   -4.753    4.961
C   60.694   -4.999    4.438
C   61.663   -4.768    4.523
C   62.550   -4.393    4.792
C   63.126   -4.991    5.350
C   63.898   -5.576    5.597
C   64.835   -5.639    5.254
C   65.641   -6.233    5.258
C   66.201   -6.470    4.464
C   67.074   -5.992    4.553
C   68.030   -5.825    4.312
C   68.785   -5.230    4.588
C   69.424   -5.987    4.720
C   69.976   -6.822    4.712
C   70.799   -7.184    5.149
C   71.796   -7.189    5.076
C   72.226   -6.738    4.293
C   72.892   -6.478    3.594
C   73.753   -6.973    3.475
C   74.138   -7.611    2.809
C   74.646   -6.861    3.233
C   75.433   -6.982    3.839
101
MC Step 40, Fx=5.00 pN, Energy=-376.529 kBT
C    0.000    0.000    0.000
C    0.848   -0.054    0.527
C    1.790    0.283    0.498
C    2.584    0.216   -0.106
C    3.316    0.258    0.574
C    3.766    1.046    0.994
C    4.705    1.261    1.263
C    5.145    0.676    0.582
C    6.010    0.488    1.047
C    6.902    0.138    0.761
C    7.623   -0.247    0.186
C    8.526    0.112   -0.050
C    9.370   -0.423   -0.073
C   10.335   -0.346   -0.324
C   11.240   -0.380    0.101
C   12.078    0.134   -0.081
C   12.910    0.689   -0.093
C   13.636    0.596    0.589
C   14.439    1.101    0.905
C   15.361    1.203    1.278
C   16.266    1.534    1.547
C   16.993    1.021    1.091
C   17.873    1.489    1.017
C   18.724    1.148    1.418
C   19.690    0.892    1.445
C   20.281    0.146    1.752
C   21.169    0.375    2.150
C   22.062    0.209    1.731
C   23.013    0.033    1.475
C   23.025    0.090    0.477
C   23.847    0.153   -0.090
C   24.842    0.096   -0.017
C   25.273    0.580    0.745
C   26.201    0.208    0.716
C   26.619   -0.612    1.108
C   27.488   -0.497    1.589
C   27.971    0.376    1.516
C   28.761    0.695    0.994
C   29.551    0.778    0.386
C   30.079    0.155    0.964
C   31.002    0.079    0.586
C   31.869   -0.140    0.138
C   32.816   -0.460    0.155
C   33.580    0.073    0.518
C   34.503    0.140    0.897
C   34.983   -0.547    1.443
C   35.849   -0.051    1.498
C   36.380    0.186    0.684
C   36.423    0.115   -0.313
C   37.262   -0.044    0.208
C   38.249    0.004    0.357
C   38.881   -0.378    1.031
C   39.813   -0.737    1.074
C   40.641   -0.469    1.568
C   41.596   -0.379    1.850
C   42.368   -0.357    1.214
C   43.172   -0.304    1.805
C   44.062   -0.448    1.373
C   45.046   -0.424    1.194
C   45.860   -0.992    1.070
C   46.072   -1.498    1.905
C   46.959   -1.614    1.459
C   47.895   -1.742    1.787
C   48.776   -1.278    1.688
C   49.429   -1.581    0.994
C   49.759   -2.303    1.602
C   50.494   -2.747    2.115
C   51.473   -2.946    2.154
C   52.353   -2.474    2.203
C   53.107   -3.076    2.465
C   53.574   -2.593    3.206
C   54.150   -3.389    3.392
C   54.968   -3.919    3.618
C   55.639   -4.353    3.017
C   56.632   -4.441    2.942
C   57.615   -4.591    3.048
C   58.141   -4.015    3.674
C   58.676   -3.351    4.196
C   59.674   -3.307    4.160
C   59.751   -4.103    4.760
C   60.567   -4.348    4.237
C   61.536   -4.118    4.322
C   62.423   -3.742    4.591
C   62.999   -4.340    5.149
C   63.771   -4.926    5.396
C   64.708   -4.989    5.054
C   65.513   -5.582    5.057
C   66.073   -5.820    4.263
C   66.947   -5.341    4.352
C   67.903   -5.175    4.111
C   68.658   -4.580    4.388
C   69.297   -5.337    4.519
C   69.849   -6.171    4.511
C   70.672   -6.533    4.948
C   71.669   -6.538    4.875
C   72.098   -6.088    4.092
C   72.765   -5.827    3.393
C   73.625   -6.322    3.274
C   74.011   -6.961    2.609
C   74.519   -6.211    3.032
C   75.306   -6.332    3.638
101
MC Step 50, Fx=5.00 pN, Energy=-375.224 kBT
C    0.000    0.000    0.000
C    0.848   -0.054    0.527
C    1.790    0.283    0.498
C    2.584    0.216   -0.106
C    3.316    0.258    0.574
C    3.766    1.046    0.994
C    4.705    1.261    1.263
C    5.145    0.676    0.582
C    6.010    0.488    1.047
C    6.902    0.138    0.761
C    7.623   -0.247    0.186
C    8.526    0.112   -0.050
C    9.370   -0.423   -0.073
C   10.335   -0.346   -0.324
C   11.240   -0.380    0.101
C   12.078    0.134   -0.081
C   12.910    0.689   -0.093
C   13.636    0.596    0.589
C   14.439    1.101    0.905
C   15.361    1.203    1.278
C   16.266    1.534    1.547
C   16.993    1.021    1.091
C   17.880    1.024    0.631
C   18.731    0.683    1.031
C   19.697    0.427    1.058
C   20.288   -0.319    1.365
C   21.176   -0.090    1.763
C   22.069   -0.256    1.344
C   23.020   -0.432    1.088
C   23.032   -0.376    0.090
C   23.854   -0.312   -0.476
C   24.849   -0.369   -0.403
C   25.280    0.115    0.358
C   26.208   -0.258    0.329
C   26.626   -1.077    0.721
C   27.495   -0.962    1.202
C   27.978   -0.089    1.130
C   28.768    0.230    0.607
C   29.558    0.313   -0.000
C   30.086   -0.310    0.577
C   30.849    0.326    0.693
C   31.716    0.107    0.246
C   32.663   -0.213    0.262
C   33.428    0.320    0.625
C   34.350    0.387    1.005
C   34.830   -0.301    1.550
C   35.696    0.196    1.605
C   36.227    0.433    0.792
C   36.270    0.361   -0.205
C   37.109    0.203    0.316
C   38.097    0.251    0.464
C   38.728   -0.132    1.139
C   39.661   -0.491    1.182
C   40.488   -0.223    1.675
C   41.443   -0.132    1.957
C   42.215   -0.111    1.321
C   43.019   -0.057    1.913
C   43.909   -0.201    1.480
C   44.893   -0.178    1.302
C   45.707   -0.745    1.177
C   45.919   -1.252    2.013
C   46.806   -1.368    1.567
C   47.634   -1.772    1.178
C   48.514   -1.308    1.079
C   49.168   -1.611    0.385
C   49.498   -2.333    0.993
C   50.233   -2.777    1.506
C   51.212   -2.976    1.545
C   52.092   -2.504    1.594
C   52.846   -3.106    1.856
C   53.313   -2.623    2.597
C   53.889   -3.419    2.783
C   54.707   -3.949    3.009
C   55.378   -4.383    2.408
C   56.371   -4.471    2.334
C   57.354   -4.620    2.439
C   57.880   -4.045    3.065
C   58.415   -3.380    3.587
C   59.413   -3.337    3.551
C   59.490   -4.133    4.152
C   60.306   -4.378    3.628
C   61.275   -4.148    3.713
C   62.162   -3.772    3.982
C   62.738   -4.370    4.540
C   63.510   -4.955    4.788
C   64.447   -5.019    4.445
C   65.252   -5.612    4.448
C   65.812   -5.849    3.655
C   66.686   -5.371    3.744
C   67.642   -5.205    3.502
C   68.396   -4.609    3.779
C   69.036   -5.367    3.910
C   69.588   -6.201    3.903
C   70.411   -6.563    4.339
C   71.408   -6.568    4.266
C   71.837   -6.118    3.483
C   72.504   -5.857    2.784
C   73.364   -6.352    2.666
C   73.750   -6.991    2.000
C   74.258   -6.241    2.424
C   75.045   -6.362    3.029
101
MC Step 60, Fx=5.00 pN, Energy=-374.823 kBT
C    0.000    0.000    0.000
C    0.848   -0.054    0.527
C    1.790    0.283    0.498
C    2.584    0.216   -0.106
C    3.316    0.258    0.574
C    3.766    1.046    0.994
C    4.705    1.261    1.263
C    5.145    0.676    0.582
C    6.010    0.488    1.047
C    6.902    0.138    0.761
C    7.623   -0.247    0.186
C    8.526    0.112   -0.050
C    9.370   -0.423   -0.073
C   10.335   -0.346   -0.324
C   11.240   -0.380    0.101
C   12.078    0.134   -0.081
C   12.910    0.689   -0.093
C   13.636    0.596    0.589
C   14.439    1.101    0.905
C   15.361    1.203    1.278
C   16.266    1.534    1.547
C   16.993    1.021    1.091
C   17.880    1.024    0.631
C   18.731    0.683    1.031
C   19.697    0.427    1.058
C   20.288   -0.319    1.365
C   21.176   -0.090    1.763
C   22.069   -0.256    1.344
C   23.020   -0.432    1.088
C   23.032   -0.376    0.090
C   23.854   -0.312   -0.476
C   24.849   -0.369   -0.403
C   25.280    0.115    0.358
C   26.159    0.227    0.822
C   26.577   -0.593    1.214
C   27.446   -0.478    1.695
C   27.929    0.395    1.623
C   28.719    0.714    1.100
C   29.509    0.797    0.492
C   30.037    0.174    1.070
C   30.800    0.810    1.186
C   31.667    0.591    0.739
C   32.614    0.271    0.755
C   33.379    0.804    1.118
C   34.301    0.871    1.498
C   34.781    0.183    2.043
C   35.647    0.680    2.098
C   36.178    0.917    1.285
C   36.221    0.845    0.288
C   37.060    0.687    0.809
C   38.048    0.735    0.957
C   38.679    0.352    1.632
C   39.612   -0.006    1.675
C   40.408    0.086    2.273
C   41.363    0.176    2.555
C   42.135    0.198    1.919
C   42.939    0.251    2.510
C   43.829    0.108    2.078
C   44.813    0.131    1.899
C   45.627   -0.437    1.775
C   45.839   -0.943    2.610
C   46.726   -1.059    2.164
C   47.554   -1.463    1.776
C   48.434   -0.999    1.676
C   49.088   -1.302    0.983
C   49.418   -2.024    1.591
C   50.153   -2.468    2.103
C   51.132   -2.668    2.143
C   52.012   -2.195    2.191
C   52.766   -2.797    2.453
C   53.233   -2.314    3.194
C   53.809   -3.110    3.380
C   54.626   -3.640    3.607
C   55.297   -4.074    3.006
C   56.291   -4.163    2.931
C   57.274   -4.312    3.036
C   57.800   -3.737    3.663
C   58.335   -3.072    4.185
C   59.333   -3.028    4.148
C   59.410   -3.824    4.749
C   60.226   -4.069    4.226
C   61.195   -3.839    4.311
C   62.082   -3.464    4.580
C   62.658   -4.061    5.138
C   63.430   -4.647    5.385
C   64.367   -4.710    5.042
C   65.172   -5.303    5.046
C   65.732   -5.541    4.252
C   66.606   -5.062    4.341
C   67.562   -4.896    4.100
C   68.316   -4.301    4.376
C   68.956   -5.058    4.508
C   69.507   -5.892    4.500
C   70.331   -6.254    4.937
C   71.328   -6.259    4.864
C   71.757   -5.809    4.080
C   72.423   -5.548    3.382
C   73.284   -6.043    3.263
C   73.670   -6.682    2.597
C   74.178   -5.932    3.021
C   74.965   -6.053    3.627
101
MC Step 70, Fx=5.00 pN, Energy=-374.823 kBT
C    0.000    0.000    0.000
C    0.848   -0.054    0.527
C    1.790    0.283    0.498
C    2.584    0.216   -0.106
C    3.316    0.258    0.574
C    3.766    1.046    0.994
C    4.705    1.261    1.263
C    5.145    0.676    0.582
C    6.010    0.488    1.047
C    6.902    0.138    0.761
C    7.623   -0.247    0.186
C    8.526    0.112   -0.050
C    9.370   -0.423   -0.073
C   10.335   -0.346   -0.324
C   11.240   -0.380    0.101
C   12.078    0.134   -0.081
C   12.910    0.689   -0.093
C   13.636    0.596    0.589
C   14.439    1.101    0.905
C   15.361    1.203    1.278
C   16.266    1.534    1.547
C   16.993    1.021    1.091
C   17.880    1.024    0.631
C   18.731    0.683    1.031
C   19.697    0.427    1.058
C   20.288   -0.319    1.365
C   21.176   -0.090    1.763
C   22.069   -0.256    1.344
C   23.020   -0.432    1.088
C   23.032   -0.376    0.090
C   23.854   -0.312   -0.476
C   24.849   -0.369   -0.403
C   25.280    0.115    0.358
C   26.159    0.227    0.822
C   26.577   -0.593    1.214
C   27.446   -0.478    1.695
C   27.929    0.395    1.623
C   28.719    0.714    1.100
C   29.509    0.797    0.492
C   30.037    0.174    1.070
C   30.800    0.810    1.186
C   31.667    0.591    0.739
C   32.614    0.271    0.755
C   33.379    0.804    1.118
C   34.301    0.871    1.498
C   34.781    0.183    2.043
C   35.647    0.680    2.098
C   36.178    0.917    1.285
C   36.221    0.845    0.288
C   37.060    0.687    0.809
C   38.048    0.735    0.957
C   38.679    0.352    1.632
C   39.612   -0.006    1.675
C   40.408    0.086    2.273
C   41.363    0.176    2.555
C   42.135    0.198    1.919
C   42.939    0.251    2.510
C   43.829    0.108    2.078
C   44.813    0.131    1.899
C   45.627   -0.437    1.775
C   45.839   -0.943    2.610
C   46.726   -1.059    2.164
C   47.554   -1.463    1.776
C   48.434   -0.999    1.676
C   49.088   -1.302    0.983
C   49.418   -2.024    1.591
C   50.153   -2.468    2.103
C   51.132   -2.668    2.143
C   52.012   -2.195    2.191
C   52.766   -2.797    2.453
C   53.233   -2.314    3.194
C   53.809   -3.110    3.380
C   54.626   -3.640    3.607
C   55.297   -4.074    3.006
C   56.291   -4.163    2.931
C   57.274   -4.312    3.036
C   57.800   -3.737    3.663
C   58.335   -3.072    4.185
C   59.333   -3.028    4.148
C   59.410   -3.824    4.749
C   60.226   -4.069    4.226
C   61.195   -3.839    4.311
C   62.082   -3.464    4.580
C   62.658   -4.061    5.138
C   63.430   -4.647    5.385
C   64.367   -4.710    5.042
C   65.172   -5.303    5.046
C   65.732   -5.541    4.252
C   66.606   -5.062    4.341
C   67.562   -4.896    4.100
C   68.316   -4.301    4.376
C   68.956   -5.058    4.508
C   69.507   -5.892    4.500
C   70.331   -6.254    4.937
C   71.328   -6.259    4.864
C   71.757   -5.809    4.080
C   72.423   -5.548    3.382
C   73.284   -6.043    3.263
C   73.670   -6.682    2.597
C   74.178   -5.932    3.021
C   74.965   -6.053    3.627
101
MC Step 80, Fx=5.00 pN, Energy=-376.345 kBT
C    0.000    0.000    0.000
C    0.848   -0.054    0.527
C    1.790    0.283    0.498
C    2.584    0.216   -0.106
C    3.316    0.258    0.574
C    3.932    0.550    1.305
C    4.871    0.766    1.573
C    5.312    0.180    0.892
C    6.177   -0.007    1.358
C    7.068   -0.358    1.072
C    7.714   -0.711    0.395
C    8.617   -0.352    0.160
C    9.461   -0.887    0.137
C   10.426   -0.810   -0.114
C   11.331   -0.844    0.311
C   12.169   -0.330    0.128
C   13.001    0.225    0.117
C   13.727    0.133    0.799
C   14.530    0.638    1.115
C   15.452    0.739    1.488
C   16.357    1.070    1.757
C   17.084    0.557    1.301
C   17.972    0.560    0.840
C   18.822    0.219    1.241
C   19.788   -0.037    1.268
C   20.542   -0.264    0.651
C   21.430   -0.034    1.049
C   22.323   -0.200    0.629
C   23.273   -0.376    0.374
C   23.286   -0.320   -0.625
C   24.108   -0.257   -1.191
C   25.103   -0.314   -1.118
C   25.534    0.170   -0.356
C   26.413    0.282    0.108
C   26.831   -0.538    0.499
C   27.700   -0.423    0.981
C   28.183    0.450    0.908
C   28.973    0.770    0.385
C   29.763    0.852   -0.222
C   30.291    0.230    0.355
C   31.054    0.865    0.472
C   31.921    0.646    0.024
C   32.868    0.326    0.041
C   33.633    0.859    0.404
C   34.555    0.926    0.783
C   35.035    0.239    1.329
C   35.901    0.735    1.384
C   36.432    0.972    0.570
C   36.475    0.901   -0.427
C   37.314    0.742    0.094
C   38.302    0.790    0.243
C   38.933    0.408    0.917
C   39.866    0.049    0.960
C   40.662    0.142    1.558
C   41.617    0.232    1.840
C   42.388    0.254    1.204
C   43.193    0.307    1.796
C   44.083    0.163    1.363
C   45.067    0.187    1.185
C   45.881   -0.381    1.060
C   46.093   -0.888    1.896
C   46.980   -1.004    1.450
C   47.808   -1.408    1.061
C   48.688   -0.944    0.962
C   49.342   -1.246    0.268
C   49.672   -1.969    0.876
C   50.407   -2.412    1.389
C   51.386   -2.612    1.428
C   52.266   -2.139    1.477
C   53.020   -2.742    1.739
C   53.487   -2.259    2.480
C   54.063   -3.055    2.666
C   54.880   -3.584    2.892
C   55.602   -3.367    3.549
C   56.595   -3.455    3.475
C   57.578   -3.604    3.580
C   58.104   -3.029    4.206
C   58.639   -2.364    4.728
C   59.637   -2.321    4.692
C   59.714   -3.116    5.293
C   60.530   -3.362    4.769
C   61.499   -3.131    4.854
C   62.386   -2.756    5.124
C   62.962   -3.354    5.681
C   63.734   -3.939    5.929
C   64.671   -4.002    5.586
C   65.476   -4.596    5.589
C   66.037   -4.833    4.796
C   66.910   -4.355    4.885
C   67.866   -4.188    4.643
C   68.621   -3.593    4.920
C   69.260   -4.350    5.051
C   69.812   -5.185    5.044
C   70.635   -5.547    5.481
C   71.632   -5.552    5.407
C   72.062   -5.101    4.624
C   72.728   -4.841    3.925
C   73.588   -5.336    3.807
C   73.974   -5.974    3.141
C   74.482   -5.225    3.565
C   75.269   -5.345    4.170
101
MC Step 90, Fx=5.00 pN, Energy=-377.255 kBT
C    0.000    0.000    0.000
C    0.848   -0.054    0.527
C    1.790    0.283    0.498
C    1.991    1.163    0.929
C    2.723    1.205    1.608
C    3.339    1.497    2.339
C    4.278    1.713    2.608
C    4.719    1.127    1.927
C    5.584    0.940    2.392
C    6.475    0.589    2.107
C    7.121    0.236    1.430
C    8.024    0.595    1.194
C    8.868    0.060    1.171
C    9.833    0.137    0.920
C   10.738    0.103    1.345
C   11.576    0.617    1.163
C   12.408    1.172    1.151
C   13.328    1.291    1.525
C   14.131    1.796    1.841
C   15.054    1.898    2.214
C   15.958    2.228    2.483
C   16.685    1.715    2.027
C   17.573    1.718    1.566
C   18.423    1.377    1.967
C   19.390    1.121    1.994
C   20.143    0.894    1.377
C   21.031    1.124    1.774
C   21.924    0.958    1.355
C   22.875    0.782    1.100
C   22.887    0.838    0.101
C   23.709    0.901   -0.465
C   24.704    0.844   -0.392
C   25.135    1.328    0.370
C   26.014    1.440    0.833
C   26.432    0.621    1.225
C   27.301    0.736    1.707
C   27.784    1.609    1.634
C   28.574    1.928    1.111
C   29.364    2.011    0.504
C   29.892    1.388    1.081
C   30.655    2.024    1.198
C   31.522    1.804    0.750
C   32.470    1.485    0.767
C   33.234    2.018    1.130
C   34.157    2.085    1.509
C   34.636    1.397    2.055
C   35.502    1.894    2.110
C   36.033    2.131    1.296
C   36.076    2.059    0.299
C   36.915    1.900    0.820
C   37.903    1.949    0.969
C   38.534    1.566    1.643
C   39.467    1.207    1.686
C   40.263    1.300    2.284
C   41.218    1.390    2.566
C   41.990    1.412    1.930
C   42.794    1.465    2.522
C   43.684    1.321    2.089
C   44.668    1.345    1.910
C   45.482    0.777    1.786
C   45.694    0.271    2.622
C   46.581    0.155    2.176
C   47.409   -0.250    1.787
C   48.289    0.215    1.688
C   48.943   -0.088    0.994
C   49.273   -0.810    1.602
C   50.008   -1.254    2.115
C   50.987   -1.454    2.154
C   51.867   -0.981    2.203
C   52.621   -1.583    2.465
C   53.088   -1.101    3.206
C   53.664   -1.896    3.392
C   54.482   -2.426    3.618
C   55.203   -2.208    4.275
C   56.196   -2.297    4.201
C   57.180   -2.446    4.306
C   57.706   -1.871    4.932
C   58.240   -1.206    5.454
C   58.979   -1.494    4.846
C   59.896   -1.104    4.927
C   60.712   -1.349    4.404
C   61.681   -1.119    4.489
C   62.568   -0.744    4.758
C   63.144   -1.341    5.316
C   63.916   -1.927    5.563
C   64.853   -1.990    5.220
C   65.659   -2.583    5.224
C   66.219   -2.821    4.430
C   67.092   -2.342    4.519
C   68.048   -2.176    4.277
C   68.803   -1.581    4.554
C   69.443   -2.338    4.686
C   69.994   -3.172    4.678
C   70.817   -3.535    5.115
C   71.815   -3.539    5.041
C   72.244   -3.089    4.258
C   72.910   -2.828    3.560
C   73.771   -3.323    3.441
C   74.156   -3.962    2.775
C   74.664   -3.212    3.199
C   75.451   -3.333    3.804
101
MC Step 100, Fx=5.00 pN, Energy=-377.255 kBT
C    0.000    0.000    0.000
C    0.848   -0.054    0.527
C    1.790    0.283    0.498
C    1.991    1.163    0.929
C    2.723    1.205    1.608
C    3.339    1.497    2.339
C    4.278    1.713    2.608
C    4.719    1.127    1.927
C    5.584    0.940    2.392
C    6.475    0.589    2.107
C    7.121    0.236    1.430
C    8.024    0.595    1.194
C    8.868    0.060    1.171
C    9.833    0.137    0.920
C   10.738    0.103    1.345
C   11.576    0.617    1.163
C   12.408    1.172    1.151
C   13.328    1.291    1.525
C   14.131    1.796    1.841
C   15.054    1.898    2.214
C   15.958    2.228    2.483
C   16.685    1.715    2.027
C   17.573    1.718    1.566
C   18.423    1.377    1.967
C   19.390    1.121    1.994
C   20.143    0.894    1.377
C   21.031    1.124    1.774
C   21.924    0.958    1.355
C   22.875    0.782    1.100
C   22.887    0.838    0.101
C   23.709    0.901   -0.465
C   24.704    0.844   -0.392
C   25.135    1.328    0.370
C   26.014    1.440    0.833
C   26.432    0.621    1.225
C   27.301    0.736    1.707
C   27.784    1.609    1.634
C   28.574    1.928    1.111
C   29.364    2.011    0.504
C   29.892    1.388    1.081
C   30.655    2.024    1.198
C   31.522    1.804    0.750
C   32.470    1.485    0.767
C   33.234    2.018    1.130
C   34.157    2.085    1.509
C   34.636    1.397    2.055
C   35.502    1.894    2.110
C   36.033    2.131    1.296
C   36.076    2.059    0.299
C   36.915    1.900    0.820
C   37.903    1.949    0.969
C   38.534    1.566    1.643
C   39.467    1.207    1.686
C   40.263    1.300    2.284
C   41.218    1.390    2.566
C   41.990    1.412    1.930
C   42.794    1.465    2.522
C   43.684    1.321    2.089
C   44.668    1.345    1.910
C   45.482    0.777    1.786
C   45.694    0.271    2.622
C   46.581    0.155    2.176
C   47.409   -0.250    1.787
C   48.289    0.215    1.688
C   48.943   -0.088    0.994
C   49.273   -0.810    1.602
C   50.008   -1.254    2.115
C   50.987   -1.454    2.154
C   51.867   -0.981    2.203
C   52.621   -1.583    2.465
C   53.088   -1.101    3.206
C   53.664   -1.896    3.392
C   54.482   -2.426    3.618
C   55.203   -2.208    4.275
C   56.196   -2.297    4.201
C   57.180   -2.446    4.306
C   57.706   -1.871    4.932
C   58.240   -1.206    5.454
C   58.979   -1.494    4.846
C   59.896   -1.104    4.927
C   60.712   -1.349    4.404
C   61.681   -1.119    4.489
C   62.568   -0.744    4.758
C   63.144   -1.341    5.316
C   63.916   -1.927    5.563
C   64.853   -1.990    5.220
C   65.659   -2.583    5.224
C   66.219   -2.821    4.430
C   67.092   -2.342    4.519
C   68.048   -2.176    4.277
C   68.803   -1.581    4.554
C   69.443   -2.338    4.686
C   69.994   -3.172    4.678
C   70.817   -3.535    5.115
C   71.815   -3.539    5.041
C   72.244   -3.089    4.258
C   72.910   -2.828    3.560
C   73.771   -3.323    3.441
C   74.156   -3.962    2.775
C   74.664   -3.212    3.199
C   75.451   -3.333    3.804
101
MC Step 110, Fx=5.00 pN, Energy=-378.287 kBT
C    0.000    0.000    0.000
C    0.848   -0.054    0.527
C    1.790    0.283    0.498
C    2.125   -0.124    1.348
C    2.857   -0.082    2.028
C    3.474    0.210    2.759